PSF CMAP CHEQ
30 !NATOM
       1 A    1    "ALA" C    C         1.000000      0.000000       0      0.000000      0.000000
       2 A    2    "ALA" C    C         1.000000      0.000000       0      0.000000      0.000000
       3 A    3    "ALA" C    C         1.000000      0.000000       0      0.000000      0.000000
       4 A    4    "ALA" C    C         1.000000      0.000000       0      0.000000      0.000000
       5 A    5    "ALA" C    C         1.000000      0.000000       0      0.000000      0.000000
       6 A    6    "ALA" C    C         1.000000      0.000000       0      0.000000      0.000000
       7 A    7    "ALA" C    C         1.000000      0.000000       0      0.000000      0.000000
       8 A    8    "ALA" C    C         1.000000      0.000000       0      0.000000      0.000000
       9 A    9    "ALA" C    C         1.000000      0.000000       0      0.000000      0.000000
      10 A    10   "ALA" C    C         1.000000      0.000000       0      0.000000      0.000000
      11 B    1    "ALA" C    C         1.000000      0.000000       0      0.000000      0.000000
      12 B    2    "ALA" C    C         1.000000      0.000000       0      0.000000      0.000000
      13 B    3    "ALA" C    C         1.000000      0.000000       0      0.000000      0.000000
      14 B    4    "ALA" C    C         1.000000      0.000000       0      0.000000      0.000000
      15 B    5    "ALA" C    C         1.000000      0.000000       0      0.000000      0.000000
      16 B    6    "ALA" C    C         1.000000      0.000000       0      0.000000      0.000000
      17 B    7    "ALA" C    C         1.000000      0.000000       0      0.000000      0.000000
      18 B    8    "ALA" C    C         1.000000      0.000000       0      0.000000      0.000000
      19 B    9    "ALA" C    C         1.000000      0.000000       0      0.000000      0.000000
      20 B    10   "ALA" C    C         1.000000      0.000000       0      0.000000      0.000000
      21 C    1    "ALA" C    C         1.000000      0.000000       0      0.000000      0.000000
      22 C    2    "ALA" C    C         1.000000      0.000000       0      0.000000      0.000000
      23 C    3    "ALA" C    C         1.000000      0.000000       0      0.000000      0.000000
      24 C    4    "ALA" C    C         1.000000      0.000000       0      0.000000      0.000000
      25 C    5    "ALA" C    C         1.000000      0.000000       0      0.000000      0.000000
      26 C    6    "ALA" C    C         1.000000      0.000000       0      0.000000      0.000000
      27 C    7    "ALA" C    C         1.000000      0.000000       0      0.000000      0.000000
      28 C    8    "ALA" C    C         1.000000      0.000000       0      0.000000      0.000000
      29 C    9    "ALA" C    C         1.000000      0.000000       0      0.000000      0.000000
      30 C    10   "ALA" C    C         1.000000      0.000000       0      0.000000      0.000000
27 !NBOND: bonds
       1       2       2       3       3       4       4       5
       5       6       6       7       7       8       8       9
       9      10      11      12      12      13      13      14
      14      15      15      16      16      17      17      18
      18      19      19      20      21      22      22      23
      23      24      24      25      25      26      26      27
      27      28      28      29      29      30
